# Force and moment coefficients
# dragDir       : (1.00000000e+00 0.00000000e+00 0.00000000e+00)
# sideDir       : (0.00000000e+00 0.00000000e+00 -1.00000000e+00)
# liftDir       : (0.00000000e+00 1.00000000e+00 0.00000000e+00)
# rollAxis      : (1.00000000e+00 0.00000000e+00 0.00000000e+00)
# pitchAxis     : (0.00000000e+00 0.00000000e+00 -1.00000000e+00)
# yawAxis       : (0.00000000e+00 1.00000000e+00 0.00000000e+00)
# magUInf       : 2.00000000e+01
# lRef          : 1.48123500e+00
# Aref          : 1.10558712e+00
# CofR          : (0.00000000e+00 0.00000000e+00 0.00000000e+00)
#
# Time          	Cd              	Cd(f)           	Cd(r)           	Cl              	Cl(f)           	Cl(r)           	CmPitch         	CmRoll          	CmYaw           	Cs              	Cs(f)           	Cs(r)           
100             	1.66000789e-01	8.29979923e-02	8.30027970e-02	3.26426378e-03	1.25897500e-03	2.00528879e-03	-3.73156896e-04	-2.40234595e-06	-2.03005465e-04	-1.25496763e-03	-8.30489280e-04	-4.24478350e-04
200             	1.87595437e-01	9.38089808e-02	9.37864560e-02	5.08032436e-02	1.96700742e-02	3.11331694e-02	-5.73154762e-03	1.12624029e-05	-3.71397681e-03	-3.12690688e-02	-1.93485112e-02	-1.19205576e-02
