# Force and moment coefficients
# dragDir       : (1.00000000e+00 0.00000000e+00 0.00000000e+00)
# sideDir       : (0.00000000e+00 0.00000000e+00 -1.00000000e+00)
# liftDir       : (0.00000000e+00 1.00000000e+00 0.00000000e+00)
# rollAxis      : (1.00000000e+00 0.00000000e+00 0.00000000e+00)
# pitchAxis     : (0.00000000e+00 0.00000000e+00 -1.00000000e+00)
# yawAxis       : (0.00000000e+00 1.00000000e+00 0.00000000e+00)
# magUInf       : 2.00000000e+01
# lRef          : 1.48123500e+00
# Aref          : 6.07224880e-01
# CofR          : (0.00000000e+00 0.00000000e+00 0.00000000e+00)
#
# Time          	Cd              	Cd(f)           	Cd(r)           	Cl              	Cl(f)           	Cl(r)           	CmPitch         	CmRoll          	CmYaw           	Cs              	Cs(f)           	Cs(r)           
100             	3.02241132e-01	1.51116192e-01	1.51124940e-01	5.94331379e-03	2.29224228e-03	3.65107151e-03	-6.79414616e-04	-4.37400184e-06	-3.69616324e-04	-2.28494598e-03	-1.51208932e-03	-7.72856668e-04
200             	3.41558961e-01	1.70799986e-01	1.70758975e-01	9.24985351e-02	3.58137181e-02	5.66848169e-02	-1.04355494e-02	2.05056941e-05	-6.76211577e-03	-5.69322518e-02	-3.52282417e-02	-2.17040101e-02
